LAMMPS data file. for C180 fulerene ball

 180 atoms
 
 1 atom types
 
-6.1	6.1  xlo xhi
-6.1	6.1  ylo yhi
-6.1	6.1  zlo zhi

 Masses

 1 12.010700 # CA

 Atoms # atomic

1	1	6.0843	0.6114	-0.4268
2	1	6.081	-0.7556	-0.1631
3	1	5.8069	-1.4223	-1.3537
4	1	5.6409	-0.4678	-2.3531
5	1	5.8124	0.789	-1.7801
6	1	2.8977	5.2514	1.2653
7	1	3.9336	4.6704	0.5384
8	1	3.6614	4.8482	-0.8149
9	1	2.4578	5.5389	-0.9248
10	1	1.9861	5.7879	0.3609
11	1	3.4523	-0.1792	5.0622
12	1	4.4899	0.0848	4.1724
13	1	4.4931	1.4514	3.909
14	1	3.4578	2.0321	4.6357
15	1	2.8143	1.0246	5.3484
16	1	2.4302	-5.4972	1.2038
17	1	3.6373	-4.8211	1.05
18	1	3.9113	-4.1542	2.2403
19	1	2.8738	-4.4182	3.1299
20	1	1.9584	-5.2482	2.4891
21	1	1.2443	-3.3535	-4.9781
22	1	2.5539	-3.2674	-4.5141
23	1	2.72	-4.2218	-3.5148
24	1	1.5129	-4.898	-3.3609
25	1	0.601	-4.3613	-4.2654
26	1	1.5334	3.2895	-4.94
27	1	2.7371	2.5988	-4.8301
28	1	2.5653	1.342	-5.403
29	1	1.2562	1.2559	-5.8669
30	1	0.6181	2.4595	-5.5807
31	1	-6.0843	-0.6113	0.4268
32	1	-5.8124	-0.7889	1.78
33	1	-5.6408	0.4679	2.3532
34	1	-5.8069	1.4224	1.3536
35	1	-6.0809	0.7555	0.1631
36	1	-1.9861	-5.7879	-0.3609
37	1	-2.4579	-5.5388	0.9247
38	1	-3.6613	-4.8483	0.815
39	1	-3.9335	-4.6704	-0.5387
40	1	-2.8979	-5.2513	-1.2652
41	1	-0.618	-2.4594	5.5808
42	1	-1.2562	-1.2558	5.8669
43	1	-2.5653	-1.342	5.4031
44	1	-2.737	-2.5988	4.8302
45	1	-1.5335	-3.2896	4.9398
46	1	-0.6011	4.3613	4.2654
47	1	-1.513	4.898	3.3609
48	1	-2.7199	4.2219	3.5146
49	1	-2.5539	3.2674	4.5142
50	1	-1.2444	3.3535	4.978
51	1	-1.9584	5.2483	-2.4891
52	1	-2.8738	4.4182	-3.13
53	1	-3.9113	4.1541	-2.2404
54	1	-3.6372	4.8213	-1.0499
55	1	-2.4301	5.4973	-1.2035
56	1	-2.8144	-1.0244	-5.3483
57	1	-3.4577	-2.0322	-4.6357
58	1	-4.4932	-1.4514	-3.9089
59	1	-4.4897	-0.0846	-4.1726
60	1	-3.4523	0.1792	-5.0621
61	1	5.6862	1.0962	1.8742
62	1	4.5204	3.2964	2.3973
63	1	5.3827	2.841	0.0478
64	1	5.0427	2.0148	2.7643
65	1	5.8591	1.5838	0.5396
66	1	4.7555	3.6665	1.0349
67	1	5.6825	-0.3479	2.153
68	1	4.5066	-2.1901	3.4556
69	1	5.369	-2.6453	1.1057
70	1	5.0354	-0.8667	3.32
71	1	5.8519	-1.2979	1.0951
72	1	4.7387	-3.0417	2.3285
73	1	5.0794	-3.3501	-0.1524
74	1	3.4063	-4.8674	-1.3238
75	1	4.5823	-3.0253	-2.6263
76	1	4.1608	-4.4479	-0.1817
77	1	5.274	-2.7041	-1.4149
78	1	3.69	-4.1405	-2.5235
79	1	4.4066	-2.0167	-3.6825
80	1	2.74	-1.036	-5.3354
81	1	4.4131	0.4816	-4.1641
82	1	3.3403	-2.1277	-4.6308
83	1	4.9241	-0.6915	-3.522
84	1	3.3462	0.2372	-5.087
85	1	5.0953	3.0288	-1.3826
86	1	3.4286	4.0097	-3.0355
87	1	4.5943	1.8096	-3.5587
88	1	4.182	4.0413	-1.8189
89	1	5.2857	1.9585	-2.3142
90	1	3.7077	2.8872	-3.879
91	1	3.4261	3.9101	3.1655
92	1	1.5298	3.4278	4.7914
93	1	1.2264	5.1723	2.9648
94	1	2.8596	3.2395	4.2963
95	1	2.5724	4.891	2.5669
96	1	0.7771	4.4344	4.1062
97	1	0.264	5.8011	-1.8235
98	1	-0.2368	4.5821	-3.9996
99	1	2.1566	4.7396	-3.1516
100	1	-0.6213	5.3481	-2.853
101	1	1.6447	5.4972	-2.0504
102	1	1.1702	4.3432	-4.1105
103	1	0.2627	5.7395	2.0089
104	1	-2.131	5.5818	1.1612
105	1	-0.2344	6.0643	-0.4648
106	1	-1.1455	5.5659	2.1996
107	1	0.6498	6.0226	0.6602
108	1	-1.6162	5.8735	-0.1427
109	1	3.4101	-2.4689	4.3956
110	1	1.2041	-3.7047	4.6767
111	1	1.5177	-1.4072	5.7238
112	1	2.5513	-3.598	4.2042
113	1	2.8479	-1.4234	5.1955
114	1	0.7595	-2.5932	5.4615
115	1	0.8438	-0.1356	6.0263
116	1	-1.3562	1.1268	5.8256
117	1	0.8498	2.3626	5.5446
118	1	-0.5852	-0.0553	6.065
119	1	1.5033	1.1147	5.7989
120	1	-0.5792	2.3097	5.6089
121	1	2.1309	-5.5819	-1.1613
122	1	-0.2626	-5.7395	-2.009
123	1	0.2345	-6.0642	0.465
124	1	1.1455	-5.5659	-2.1995
125	1	1.616	-5.8735	0.1426
126	1	-0.6498	-6.0226	-0.6603
127	1	-0.2641	-5.801	1.8233
128	1	-2.1565	-4.7396	3.1516
129	1	0.2367	-4.5819	3.9996
130	1	-1.6446	-5.4972	2.0505
131	1	0.6215	-5.3482	2.8529
132	1	-1.1702	-4.3431	4.1105
133	1	1.356	-1.1268	-5.8257
134	1	-0.8435	0.1354	-6.0263
135	1	-0.8498	-2.3624	-5.5447
136	1	0.5851	0.0553	-6.065
137	1	0.5793	-2.3095	-5.6088
138	1	-1.5033	-1.1146	-5.7989
139	1	-1.2263	-5.1723	-2.9649
140	1	-3.4262	-3.91	-3.1655
141	1	-1.5299	-3.428	-4.7913
142	1	-2.5725	-4.8911	-2.5668
143	1	-0.7772	-4.4343	-4.1062
144	1	-2.8597	-3.2392	-4.2963
145	1	-1.2042	3.7048	-4.6767
146	1	-3.4102	2.4692	-4.3956
147	1	-1.5177	1.4075	-5.7239
148	1	-2.5512	3.598	-4.2041
149	1	-0.7596	2.5931	-5.4616
150	1	-2.8479	1.4232	-5.1955
151	1	-5.3827	-2.8409	-0.0477
152	1	-4.5203	-3.2963	-2.3975
153	1	-5.6862	-1.0961	-1.8742
154	1	-4.7555	-3.6665	-1.0348
155	1	-5.8591	-1.5838	-0.5396
156	1	-5.0427	-2.0148	-2.7643
157	1	-5.0953	-3.0288	1.3826
158	1	-3.4287	-4.0096	3.0355
159	1	-4.5943	-1.8097	3.5586
160	1	-4.182	-4.0411	1.8189
161	1	-5.2856	-1.9585	2.3142
162	1	-3.7077	-2.8871	3.8789
163	1	-4.4131	-0.4814	4.1642
164	1	-2.74	1.0358	5.3354
165	1	-4.4069	2.0166	3.6824
166	1	-3.346	-0.237	5.0869
167	1	-4.924	0.6918	3.522
168	1	-3.3401	2.1279	4.6308
169	1	-4.5822	3.0254	2.6264
170	1	-3.4061	4.8676	1.3237
171	1	-5.0793	3.3503	0.1523
172	1	-3.6901	4.1405	2.5237
173	1	-5.274	2.7041	1.4149
174	1	-4.1609	4.4478	0.1817
175	1	-5.3689	2.6455	-1.1057
176	1	-4.5065	2.1901	-3.4557
177	1	-5.6824	0.3479	-2.1531
178	1	-4.7387	3.0419	-2.3284
179	1	-5.852	1.2978	-1.0952
180	1	-5.0355	0.8667	-3.3198